# 'infinite' 2D sheet
0 25 xlo xhi
0 25 ylo yhi
-10 10 zlo zhi
625 atoms
1875 bonds
1875 dihedrals
1 atom types
1 bond types
1 dihedral types
12 extra bond per atom
12 extra dihedral per atom
12 extra special per atom

Atoms

1 1 1 0 0 0
2 1 1 0 1 0
3 1 1 0 2 0
4 1 1 0 3 0
5 1 1 0 4 0
6 1 1 0 5 0
7 1 1 0 6 0
8 1 1 0 7 0
9 1 1 0 8 0
10 1 1 0 9 0
11 1 1 0 10 0
12 1 1 0 11 0
13 1 1 0 12 0
14 1 1 0 13 0
15 1 1 0 14 0
16 1 1 0 15 0
17 1 1 0 16 0
18 1 1 0 17 0
19 1 1 0 18 0
20 1 1 0 19 0
21 1 1 0 20 0
22 1 1 0 21 0
23 1 1 0 22 0
24 1 1 0 23 0
25 1 1 0 24 0
26 1 1 1 0 0
27 1 1 1 1 0
28 1 1 1 2 0
29 1 1 1 3 0
30 1 1 1 4 0
31 1 1 1 5 0
32 1 1 1 6 0
33 1 1 1 7 0
34 1 1 1 8 0
35 1 1 1 9 0
36 1 1 1 10 0
37 1 1 1 11 0
38 1 1 1 12 0
39 1 1 1 13 0
40 1 1 1 14 0
41 1 1 1 15 0
42 1 1 1 16 0
43 1 1 1 17 0
44 1 1 1 18 0
45 1 1 1 19 0
46 1 1 1 20 0
47 1 1 1 21 0
48 1 1 1 22 0
49 1 1 1 23 0
50 1 1 1 24 0
51 1 1 2 0 0
52 1 1 2 1 0
53 1 1 2 2 0
54 1 1 2 3 0
55 1 1 2 4 0
56 1 1 2 5 0
57 1 1 2 6 0
58 1 1 2 7 0
59 1 1 2 8 0
60 1 1 2 9 0
61 1 1 2 10 0
62 1 1 2 11 0
63 1 1 2 12 0
64 1 1 2 13 0
65 1 1 2 14 0
66 1 1 2 15 0
67 1 1 2 16 0
68 1 1 2 17 0
69 1 1 2 18 0
70 1 1 2 19 0
71 1 1 2 20 0
72 1 1 2 21 0
73 1 1 2 22 0
74 1 1 2 23 0
75 1 1 2 24 0
76 1 1 3 0 0
77 1 1 3 1 0
78 1 1 3 2 0
79 1 1 3 3 0
80 1 1 3 4 0
81 1 1 3 5 0
82 1 1 3 6 0
83 1 1 3 7 0
84 1 1 3 8 0
85 1 1 3 9 0
86 1 1 3 10 0
87 1 1 3 11 0
88 1 1 3 12 0
89 1 1 3 13 0
90 1 1 3 14 0
91 1 1 3 15 0
92 1 1 3 16 0
93 1 1 3 17 0
94 1 1 3 18 0
95 1 1 3 19 0
96 1 1 3 20 0
97 1 1 3 21 0
98 1 1 3 22 0
99 1 1 3 23 0
100 1 1 3 24 0
101 1 1 4 0 0
102 1 1 4 1 0
103 1 1 4 2 0
104 1 1 4 3 0
105 1 1 4 4 0
106 1 1 4 5 0
107 1 1 4 6 0
108 1 1 4 7 0
109 1 1 4 8 0
110 1 1 4 9 0
111 1 1 4 10 0
112 1 1 4 11 0
113 1 1 4 12 0
114 1 1 4 13 0
115 1 1 4 14 0
116 1 1 4 15 0
117 1 1 4 16 0
118 1 1 4 17 0
119 1 1 4 18 0
120 1 1 4 19 0
121 1 1 4 20 0
122 1 1 4 21 0
123 1 1 4 22 0
124 1 1 4 23 0
125 1 1 4 24 0
126 1 1 5 0 0
127 1 1 5 1 0
128 1 1 5 2 0
129 1 1 5 3 0
130 1 1 5 4 0
131 1 1 5 5 0
132 1 1 5 6 0
133 1 1 5 7 0
134 1 1 5 8 0
135 1 1 5 9 0
136 1 1 5 10 0
137 1 1 5 11 0
138 1 1 5 12 0
139 1 1 5 13 0
140 1 1 5 14 0
141 1 1 5 15 0
142 1 1 5 16 0
143 1 1 5 17 0
144 1 1 5 18 0
145 1 1 5 19 0
146 1 1 5 20 0
147 1 1 5 21 0
148 1 1 5 22 0
149 1 1 5 23 0
150 1 1 5 24 0
151 1 1 6 0 0
152 1 1 6 1 0
153 1 1 6 2 0
154 1 1 6 3 0
155 1 1 6 4 0
156 1 1 6 5 0
157 1 1 6 6 0
158 1 1 6 7 0
159 1 1 6 8 0
160 1 1 6 9 0
161 1 1 6 10 0
162 1 1 6 11 0
163 1 1 6 12 0
164 1 1 6 13 0
165 1 1 6 14 0
166 1 1 6 15 0
167 1 1 6 16 0
168 1 1 6 17 0
169 1 1 6 18 0
170 1 1 6 19 0
171 1 1 6 20 0
172 1 1 6 21 0
173 1 1 6 22 0
174 1 1 6 23 0
175 1 1 6 24 0
176 1 1 7 0 0
177 1 1 7 1 0
178 1 1 7 2 0
179 1 1 7 3 0
180 1 1 7 4 0
181 1 1 7 5 0
182 1 1 7 6 0
183 1 1 7 7 0
184 1 1 7 8 0
185 1 1 7 9 0
186 1 1 7 10 0
187 1 1 7 11 0
188 1 1 7 12 0
189 1 1 7 13 0
190 1 1 7 14 0
191 1 1 7 15 0
192 1 1 7 16 0
193 1 1 7 17 0
194 1 1 7 18 0
195 1 1 7 19 0
196 1 1 7 20 0
197 1 1 7 21 0
198 1 1 7 22 0
199 1 1 7 23 0
200 1 1 7 24 0
201 1 1 8 0 0
202 1 1 8 1 0
203 1 1 8 2 0
204 1 1 8 3 0
205 1 1 8 4 0
206 1 1 8 5 0
207 1 1 8 6 0
208 1 1 8 7 0
209 1 1 8 8 0
210 1 1 8 9 0
211 1 1 8 10 0
212 1 1 8 11 0
213 1 1 8 12 0
214 1 1 8 13 0
215 1 1 8 14 0
216 1 1 8 15 0
217 1 1 8 16 0
218 1 1 8 17 0
219 1 1 8 18 0
220 1 1 8 19 0
221 1 1 8 20 0
222 1 1 8 21 0
223 1 1 8 22 0
224 1 1 8 23 0
225 1 1 8 24 0
226 1 1 9 0 0
227 1 1 9 1 0
228 1 1 9 2 0
229 1 1 9 3 0
230 1 1 9 4 0
231 1 1 9 5 0
232 1 1 9 6 0
233 1 1 9 7 0
234 1 1 9 8 0
235 1 1 9 9 0
236 1 1 9 10 0
237 1 1 9 11 0
238 1 1 9 12 0
239 1 1 9 13 0
240 1 1 9 14 0
241 1 1 9 15 0
242 1 1 9 16 0
243 1 1 9 17 0
244 1 1 9 18 0
245 1 1 9 19 0
246 1 1 9 20 0
247 1 1 9 21 0
248 1 1 9 22 0
249 1 1 9 23 0
250 1 1 9 24 0
251 1 1 10 0 0
252 1 1 10 1 0
253 1 1 10 2 0
254 1 1 10 3 0
255 1 1 10 4 0
256 1 1 10 5 0
257 1 1 10 6 0
258 1 1 10 7 0
259 1 1 10 8 0
260 1 1 10 9 0
261 1 1 10 10 0
262 1 1 10 11 0
263 1 1 10 12 0
264 1 1 10 13 0
265 1 1 10 14 0
266 1 1 10 15 0
267 1 1 10 16 0
268 1 1 10 17 0
269 1 1 10 18 0
270 1 1 10 19 0
271 1 1 10 20 0
272 1 1 10 21 0
273 1 1 10 22 0
274 1 1 10 23 0
275 1 1 10 24 0
276 1 1 11 0 0
277 1 1 11 1 0
278 1 1 11 2 0
279 1 1 11 3 0
280 1 1 11 4 0
281 1 1 11 5 0
282 1 1 11 6 0
283 1 1 11 7 0
284 1 1 11 8 0
285 1 1 11 9 0
286 1 1 11 10 0
287 1 1 11 11 0
288 1 1 11 12 0
289 1 1 11 13 0
290 1 1 11 14 0
291 1 1 11 15 0
292 1 1 11 16 0
293 1 1 11 17 0
294 1 1 11 18 0
295 1 1 11 19 0
296 1 1 11 20 0
297 1 1 11 21 0
298 1 1 11 22 0
299 1 1 11 23 0
300 1 1 11 24 0
301 1 1 12 0 0
302 1 1 12 1 0
303 1 1 12 2 0
304 1 1 12 3 0
305 1 1 12 4 0
306 1 1 12 5 0
307 1 1 12 6 0
308 1 1 12 7 0
309 1 1 12 8 0
310 1 1 12 9 0
311 1 1 12 10 0
312 1 1 12 11 0
313 1 1 12 12 0
314 1 1 12 13 0
315 1 1 12 14 0
316 1 1 12 15 0
317 1 1 12 16 0
318 1 1 12 17 0
319 1 1 12 18 0
320 1 1 12 19 0
321 1 1 12 20 0
322 1 1 12 21 0
323 1 1 12 22 0
324 1 1 12 23 0
325 1 1 12 24 0
326 1 1 13 0 0
327 1 1 13 1 0
328 1 1 13 2 0
329 1 1 13 3 0
330 1 1 13 4 0
331 1 1 13 5 0
332 1 1 13 6 0
333 1 1 13 7 0
334 1 1 13 8 0
335 1 1 13 9 0
336 1 1 13 10 0
337 1 1 13 11 0
338 1 1 13 12 0
339 1 1 13 13 0
340 1 1 13 14 0
341 1 1 13 15 0
342 1 1 13 16 0
343 1 1 13 17 0
344 1 1 13 18 0
345 1 1 13 19 0
346 1 1 13 20 0
347 1 1 13 21 0
348 1 1 13 22 0
349 1 1 13 23 0
350 1 1 13 24 0
351 1 1 14 0 0
352 1 1 14 1 0
353 1 1 14 2 0
354 1 1 14 3 0
355 1 1 14 4 0
356 1 1 14 5 0
357 1 1 14 6 0
358 1 1 14 7 0
359 1 1 14 8 0
360 1 1 14 9 0
361 1 1 14 10 0
362 1 1 14 11 0
363 1 1 14 12 0
364 1 1 14 13 0
365 1 1 14 14 0
366 1 1 14 15 0
367 1 1 14 16 0
368 1 1 14 17 0
369 1 1 14 18 0
370 1 1 14 19 0
371 1 1 14 20 0
372 1 1 14 21 0
373 1 1 14 22 0
374 1 1 14 23 0
375 1 1 14 24 0
376 1 1 15 0 0
377 1 1 15 1 0
378 1 1 15 2 0
379 1 1 15 3 0
380 1 1 15 4 0
381 1 1 15 5 0
382 1 1 15 6 0
383 1 1 15 7 0
384 1 1 15 8 0
385 1 1 15 9 0
386 1 1 15 10 0
387 1 1 15 11 0
388 1 1 15 12 0
389 1 1 15 13 0
390 1 1 15 14 0
391 1 1 15 15 0
392 1 1 15 16 0
393 1 1 15 17 0
394 1 1 15 18 0
395 1 1 15 19 0
396 1 1 15 20 0
397 1 1 15 21 0
398 1 1 15 22 0
399 1 1 15 23 0
400 1 1 15 24 0
401 1 1 16 0 0
402 1 1 16 1 0
403 1 1 16 2 0
404 1 1 16 3 0
405 1 1 16 4 0
406 1 1 16 5 0
407 1 1 16 6 0
408 1 1 16 7 0
409 1 1 16 8 0
410 1 1 16 9 0
411 1 1 16 10 0
412 1 1 16 11 0
413 1 1 16 12 0
414 1 1 16 13 0
415 1 1 16 14 0
416 1 1 16 15 0
417 1 1 16 16 0
418 1 1 16 17 0
419 1 1 16 18 0
420 1 1 16 19 0
421 1 1 16 20 0
422 1 1 16 21 0
423 1 1 16 22 0
424 1 1 16 23 0
425 1 1 16 24 0
426 1 1 17 0 0
427 1 1 17 1 0
428 1 1 17 2 0
429 1 1 17 3 0
430 1 1 17 4 0
431 1 1 17 5 0
432 1 1 17 6 0
433 1 1 17 7 0
434 1 1 17 8 0
435 1 1 17 9 0
436 1 1 17 10 0
437 1 1 17 11 0
438 1 1 17 12 0
439 1 1 17 13 0
440 1 1 17 14 0
441 1 1 17 15 0
442 1 1 17 16 0
443 1 1 17 17 0
444 1 1 17 18 0
445 1 1 17 19 0
446 1 1 17 20 0
447 1 1 17 21 0
448 1 1 17 22 0
449 1 1 17 23 0
450 1 1 17 24 0
451 1 1 18 0 0
452 1 1 18 1 0
453 1 1 18 2 0
454 1 1 18 3 0
455 1 1 18 4 0
456 1 1 18 5 0
457 1 1 18 6 0
458 1 1 18 7 0
459 1 1 18 8 0
460 1 1 18 9 0
461 1 1 18 10 0
462 1 1 18 11 0
463 1 1 18 12 0
464 1 1 18 13 0
465 1 1 18 14 0
466 1 1 18 15 0
467 1 1 18 16 0
468 1 1 18 17 0
469 1 1 18 18 0
470 1 1 18 19 0
471 1 1 18 20 0
472 1 1 18 21 0
473 1 1 18 22 0
474 1 1 18 23 0
475 1 1 18 24 0
476 1 1 19 0 0
477 1 1 19 1 0
478 1 1 19 2 0
479 1 1 19 3 0
480 1 1 19 4 0
481 1 1 19 5 0
482 1 1 19 6 0
483 1 1 19 7 0
484 1 1 19 8 0
485 1 1 19 9 0
486 1 1 19 10 0
487 1 1 19 11 0
488 1 1 19 12 0
489 1 1 19 13 0
490 1 1 19 14 0
491 1 1 19 15 0
492 1 1 19 16 0
493 1 1 19 17 0
494 1 1 19 18 0
495 1 1 19 19 0
496 1 1 19 20 0
497 1 1 19 21 0
498 1 1 19 22 0
499 1 1 19 23 0
500 1 1 19 24 0
501 1 1 20 0 0
502 1 1 20 1 0
503 1 1 20 2 0
504 1 1 20 3 0
505 1 1 20 4 0
506 1 1 20 5 0
507 1 1 20 6 0
508 1 1 20 7 0
509 1 1 20 8 0
510 1 1 20 9 0
511 1 1 20 10 0
512 1 1 20 11 0
513 1 1 20 12 0
514 1 1 20 13 0
515 1 1 20 14 0
516 1 1 20 15 0
517 1 1 20 16 0
518 1 1 20 17 0
519 1 1 20 18 0
520 1 1 20 19 0
521 1 1 20 20 0
522 1 1 20 21 0
523 1 1 20 22 0
524 1 1 20 23 0
525 1 1 20 24 0
526 1 1 21 0 0
527 1 1 21 1 0
528 1 1 21 2 0
529 1 1 21 3 0
530 1 1 21 4 0
531 1 1 21 5 0
532 1 1 21 6 0
533 1 1 21 7 0
534 1 1 21 8 0
535 1 1 21 9 0
536 1 1 21 10 0
537 1 1 21 11 0
538 1 1 21 12 0
539 1 1 21 13 0
540 1 1 21 14 0
541 1 1 21 15 0
542 1 1 21 16 0
543 1 1 21 17 0
544 1 1 21 18 0
545 1 1 21 19 0
546 1 1 21 20 0
547 1 1 21 21 0
548 1 1 21 22 0
549 1 1 21 23 0
550 1 1 21 24 0
551 1 1 22 0 0
552 1 1 22 1 0
553 1 1 22 2 0
554 1 1 22 3 0
555 1 1 22 4 0
556 1 1 22 5 0
557 1 1 22 6 0
558 1 1 22 7 0
559 1 1 22 8 0
560 1 1 22 9 0
561 1 1 22 10 0
562 1 1 22 11 0
563 1 1 22 12 0
564 1 1 22 13 0
565 1 1 22 14 0
566 1 1 22 15 0
567 1 1 22 16 0
568 1 1 22 17 0
569 1 1 22 18 0
570 1 1 22 19 0
571 1 1 22 20 0
572 1 1 22 21 0
573 1 1 22 22 0
574 1 1 22 23 0
575 1 1 22 24 0
576 1 1 23 0 0
577 1 1 23 1 0
578 1 1 23 2 0
579 1 1 23 3 0
580 1 1 23 4 0
581 1 1 23 5 0
582 1 1 23 6 0
583 1 1 23 7 0
584 1 1 23 8 0
585 1 1 23 9 0
586 1 1 23 10 0
587 1 1 23 11 0
588 1 1 23 12 0
589 1 1 23 13 0
590 1 1 23 14 0
591 1 1 23 15 0
592 1 1 23 16 0
593 1 1 23 17 0
594 1 1 23 18 0
595 1 1 23 19 0
596 1 1 23 20 0
597 1 1 23 21 0
598 1 1 23 22 0
599 1 1 23 23 0
600 1 1 23 24 0
601 1 1 24 0 0
602 1 1 24 1 0
603 1 1 24 2 0
604 1 1 24 3 0
605 1 1 24 4 0
606 1 1 24 5 0
607 1 1 24 6 0
608 1 1 24 7 0
609 1 1 24 8 0
610 1 1 24 9 0
611 1 1 24 10 0
612 1 1 24 11 0
613 1 1 24 12 0
614 1 1 24 13 0
615 1 1 24 14 0
616 1 1 24 15 0
617 1 1 24 16 0
618 1 1 24 17 0
619 1 1 24 18 0
620 1 1 24 19 0
621 1 1 24 20 0
622 1 1 24 21 0
623 1 1 24 22 0
624 1 1 24 23 0
625 1 1 24 24 0

Bonds

1 1 1 26
2 1 1 2
3 1 1 27
4 1 2 27
5 1 2 3
6 1 2 28
7 1 3 28
8 1 3 4
9 1 3 29
10 1 4 29
11 1 4 5
12 1 4 30
13 1 5 30
14 1 5 6
15 1 5 31
16 1 6 31
17 1 6 7
18 1 6 32
19 1 7 32
20 1 7 8
21 1 7 33
22 1 8 33
23 1 8 9
24 1 8 34
25 1 9 34
26 1 9 10
27 1 9 35
28 1 10 35
29 1 10 11
30 1 10 36
31 1 11 36
32 1 11 12
33 1 11 37
34 1 12 37
35 1 12 13
36 1 12 38
37 1 13 38
38 1 13 14
39 1 13 39
40 1 14 39
41 1 14 15
42 1 14 40
43 1 15 40
44 1 15 16
45 1 15 41
46 1 16 41
47 1 16 17
48 1 16 42
49 1 17 42
50 1 17 18
51 1 17 43
52 1 18 43
53 1 18 19
54 1 18 44
55 1 19 44
56 1 19 20
57 1 19 45
58 1 20 45
59 1 20 21
60 1 20 46
61 1 21 46
62 1 21 22
63 1 21 47
64 1 22 47
65 1 22 23
66 1 22 48
67 1 23 48
68 1 23 24
69 1 23 49
70 1 24 49
71 1 24 25
72 1 24 50
73 1 25 50
74 1 25 1
75 1 25 26
76 1 26 51
77 1 26 27
78 1 26 52
79 1 27 52
80 1 27 28
81 1 27 53
82 1 28 53
83 1 28 29
84 1 28 54
85 1 29 54
86 1 29 30
87 1 29 55
88 1 30 55
89 1 30 31
90 1 30 56
91 1 31 56
92 1 31 32
93 1 31 57
94 1 32 57
95 1 32 33
96 1 32 58
97 1 33 58
98 1 33 34
99 1 33 59
100 1 34 59
101 1 34 35
102 1 34 60
103 1 35 60
104 1 35 36
105 1 35 61
106 1 36 61
107 1 36 37
108 1 36 62
109 1 37 62
110 1 37 38
111 1 37 63
112 1 38 63
113 1 38 39
114 1 38 64
115 1 39 64
116 1 39 40
117 1 39 65
118 1 40 65
119 1 40 41
120 1 40 66
121 1 41 66
122 1 41 42
123 1 41 67
124 1 42 67
125 1 42 43
126 1 42 68
127 1 43 68
128 1 43 44
129 1 43 69
130 1 44 69
131 1 44 45
132 1 44 70
133 1 45 70
134 1 45 46
135 1 45 71
136 1 46 71
137 1 46 47
138 1 46 72
139 1 47 72
140 1 47 48
141 1 47 73
142 1 48 73
143 1 48 49
144 1 48 74
145 1 49 74
146 1 49 50
147 1 49 75
148 1 50 75
149 1 50 26
150 1 50 51
151 1 51 76
152 1 51 52
153 1 51 77
154 1 52 77
155 1 52 53
156 1 52 78
157 1 53 78
158 1 53 54
159 1 53 79
160 1 54 79
161 1 54 55
162 1 54 80
163 1 55 80
164 1 55 56
165 1 55 81
166 1 56 81
167 1 56 57
168 1 56 82
169 1 57 82
170 1 57 58
171 1 57 83
172 1 58 83
173 1 58 59
174 1 58 84
175 1 59 84
176 1 59 60
177 1 59 85
178 1 60 85
179 1 60 61
180 1 60 86
181 1 61 86
182 1 61 62
183 1 61 87
184 1 62 87
185 1 62 63
186 1 62 88
187 1 63 88
188 1 63 64
189 1 63 89
190 1 64 89
191 1 64 65
192 1 64 90
193 1 65 90
194 1 65 66
195 1 65 91
196 1 66 91
197 1 66 67
198 1 66 92
199 1 67 92
200 1 67 68
201 1 67 93
202 1 68 93
203 1 68 69
204 1 68 94
205 1 69 94
206 1 69 70
207 1 69 95
208 1 70 95
209 1 70 71
210 1 70 96
211 1 71 96
212 1 71 72
213 1 71 97
214 1 72 97
215 1 72 73
216 1 72 98
217 1 73 98
218 1 73 74
219 1 73 99
220 1 74 99
221 1 74 75
222 1 74 100
223 1 75 100
224 1 75 51
225 1 75 76
226 1 76 101
227 1 76 77
228 1 76 102
229 1 77 102
230 1 77 78
231 1 77 103
232 1 78 103
233 1 78 79
234 1 78 104
235 1 79 104
236 1 79 80
237 1 79 105
238 1 80 105
239 1 80 81
240 1 80 106
241 1 81 106
242 1 81 82
243 1 81 107
244 1 82 107
245 1 82 83
246 1 82 108
247 1 83 108
248 1 83 84
249 1 83 109
250 1 84 109
251 1 84 85
252 1 84 110
253 1 85 110
254 1 85 86
255 1 85 111
256 1 86 111
257 1 86 87
258 1 86 112
259 1 87 112
260 1 87 88
261 1 87 113
262 1 88 113
263 1 88 89
264 1 88 114
265 1 89 114
266 1 89 90
267 1 89 115
268 1 90 115
269 1 90 91
270 1 90 116
271 1 91 116
272 1 91 92
273 1 91 117
274 1 92 117
275 1 92 93
276 1 92 118
277 1 93 118
278 1 93 94
279 1 93 119
280 1 94 119
281 1 94 95
282 1 94 120
283 1 95 120
284 1 95 96
285 1 95 121
286 1 96 121
287 1 96 97
288 1 96 122
289 1 97 122
290 1 97 98
291 1 97 123
292 1 98 123
293 1 98 99
294 1 98 124
295 1 99 124
296 1 99 100
297 1 99 125
298 1 100 125
299 1 100 76
300 1 100 101
301 1 101 126
302 1 101 102
303 1 101 127
304 1 102 127
305 1 102 103
306 1 102 128
307 1 103 128
308 1 103 104
309 1 103 129
310 1 104 129
311 1 104 105
312 1 104 130
313 1 105 130
314 1 105 106
315 1 105 131
316 1 106 131
317 1 106 107
318 1 106 132
319 1 107 132
320 1 107 108
321 1 107 133
322 1 108 133
323 1 108 109
324 1 108 134
325 1 109 134
326 1 109 110
327 1 109 135
328 1 110 135
329 1 110 111
330 1 110 136
331 1 111 136
332 1 111 112
333 1 111 137
334 1 112 137
335 1 112 113
336 1 112 138
337 1 113 138
338 1 113 114
339 1 113 139
340 1 114 139
341 1 114 115
342 1 114 140
343 1 115 140
344 1 115 116
345 1 115 141
346 1 116 141
347 1 116 117
348 1 116 142
349 1 117 142
350 1 117 118
351 1 117 143
352 1 118 143
353 1 118 119
354 1 118 144
355 1 119 144
356 1 119 120
357 1 119 145
358 1 120 145
359 1 120 121
360 1 120 146
361 1 121 146
362 1 121 122
363 1 121 147
364 1 122 147
365 1 122 123
366 1 122 148
367 1 123 148
368 1 123 124
369 1 123 149
370 1 124 149
371 1 124 125
372 1 124 150
373 1 125 150
374 1 125 101
375 1 125 126
376 1 126 151
377 1 126 127
378 1 126 152
379 1 127 152
380 1 127 128
381 1 127 153
382 1 128 153
383 1 128 129
384 1 128 154
385 1 129 154
386 1 129 130
387 1 129 155
388 1 130 155
389 1 130 131
390 1 130 156
391 1 131 156
392 1 131 132
393 1 131 157
394 1 132 157
395 1 132 133
396 1 132 158
397 1 133 158
398 1 133 134
399 1 133 159
400 1 134 159
401 1 134 135
402 1 134 160
403 1 135 160
404 1 135 136
405 1 135 161
406 1 136 161
407 1 136 137
408 1 136 162
409 1 137 162
410 1 137 138
411 1 137 163
412 1 138 163
413 1 138 139
414 1 138 164
415 1 139 164
416 1 139 140
417 1 139 165
418 1 140 165
419 1 140 141
420 1 140 166
421 1 141 166
422 1 141 142
423 1 141 167
424 1 142 167
425 1 142 143
426 1 142 168
427 1 143 168
428 1 143 144
429 1 143 169
430 1 144 169
431 1 144 145
432 1 144 170
433 1 145 170
434 1 145 146
435 1 145 171
436 1 146 171
437 1 146 147
438 1 146 172
439 1 147 172
440 1 147 148
441 1 147 173
442 1 148 173
443 1 148 149
444 1 148 174
445 1 149 174
446 1 149 150
447 1 149 175
448 1 150 175
449 1 150 126
450 1 150 151
451 1 151 176
452 1 151 152
453 1 151 177
454 1 152 177
455 1 152 153
456 1 152 178
457 1 153 178
458 1 153 154
459 1 153 179
460 1 154 179
461 1 154 155
462 1 154 180
463 1 155 180
464 1 155 156
465 1 155 181
466 1 156 181
467 1 156 157
468 1 156 182
469 1 157 182
470 1 157 158
471 1 157 183
472 1 158 183
473 1 158 159
474 1 158 184
475 1 159 184
476 1 159 160
477 1 159 185
478 1 160 185
479 1 160 161
480 1 160 186
481 1 161 186
482 1 161 162
483 1 161 187
484 1 162 187
485 1 162 163
486 1 162 188
487 1 163 188
488 1 163 164
489 1 163 189
490 1 164 189
491 1 164 165
492 1 164 190
493 1 165 190
494 1 165 166
495 1 165 191
496 1 166 191
497 1 166 167
498 1 166 192
499 1 167 192
500 1 167 168
501 1 167 193
502 1 168 193
503 1 168 169
504 1 168 194
505 1 169 194
506 1 169 170
507 1 169 195
508 1 170 195
509 1 170 171
510 1 170 196
511 1 171 196
512 1 171 172
513 1 171 197
514 1 172 197
515 1 172 173
516 1 172 198
517 1 173 198
518 1 173 174
519 1 173 199
520 1 174 199
521 1 174 175
522 1 174 200
523 1 175 200
524 1 175 151
525 1 175 176
526 1 176 201
527 1 176 177
528 1 176 202
529 1 177 202
530 1 177 178
531 1 177 203
532 1 178 203
533 1 178 179
534 1 178 204
535 1 179 204
536 1 179 180
537 1 179 205
538 1 180 205
539 1 180 181
540 1 180 206
541 1 181 206
542 1 181 182
543 1 181 207
544 1 182 207
545 1 182 183
546 1 182 208
547 1 183 208
548 1 183 184
549 1 183 209
550 1 184 209
551 1 184 185
552 1 184 210
553 1 185 210
554 1 185 186
555 1 185 211
556 1 186 211
557 1 186 187
558 1 186 212
559 1 187 212
560 1 187 188
561 1 187 213
562 1 188 213
563 1 188 189
564 1 188 214
565 1 189 214
566 1 189 190
567 1 189 215
568 1 190 215
569 1 190 191
570 1 190 216
571 1 191 216
572 1 191 192
573 1 191 217
574 1 192 217
575 1 192 193
576 1 192 218
577 1 193 218
578 1 193 194
579 1 193 219
580 1 194 219
581 1 194 195
582 1 194 220
583 1 195 220
584 1 195 196
585 1 195 221
586 1 196 221
587 1 196 197
588 1 196 222
589 1 197 222
590 1 197 198
591 1 197 223
592 1 198 223
593 1 198 199
594 1 198 224
595 1 199 224
596 1 199 200
597 1 199 225
598 1 200 225
599 1 200 176
600 1 200 201
601 1 201 226
602 1 201 202
603 1 201 227
604 1 202 227
605 1 202 203
606 1 202 228
607 1 203 228
608 1 203 204
609 1 203 229
610 1 204 229
611 1 204 205
612 1 204 230
613 1 205 230
614 1 205 206
615 1 205 231
616 1 206 231
617 1 206 207
618 1 206 232
619 1 207 232
620 1 207 208
621 1 207 233
622 1 208 233
623 1 208 209
624 1 208 234
625 1 209 234
626 1 209 210
627 1 209 235
628 1 210 235
629 1 210 211
630 1 210 236
631 1 211 236
632 1 211 212
633 1 211 237
634 1 212 237
635 1 212 213
636 1 212 238
637 1 213 238
638 1 213 214
639 1 213 239
640 1 214 239
641 1 214 215
642 1 214 240
643 1 215 240
644 1 215 216
645 1 215 241
646 1 216 241
647 1 216 217
648 1 216 242
649 1 217 242
650 1 217 218
651 1 217 243
652 1 218 243
653 1 218 219
654 1 218 244
655 1 219 244
656 1 219 220
657 1 219 245
658 1 220 245
659 1 220 221
660 1 220 246
661 1 221 246
662 1 221 222
663 1 221 247
664 1 222 247
665 1 222 223
666 1 222 248
667 1 223 248
668 1 223 224
669 1 223 249
670 1 224 249
671 1 224 225
672 1 224 250
673 1 225 250
674 1 225 201
675 1 225 226
676 1 226 251
677 1 226 227
678 1 226 252
679 1 227 252
680 1 227 228
681 1 227 253
682 1 228 253
683 1 228 229
684 1 228 254
685 1 229 254
686 1 229 230
687 1 229 255
688 1 230 255
689 1 230 231
690 1 230 256
691 1 231 256
692 1 231 232
693 1 231 257
694 1 232 257
695 1 232 233
696 1 232 258
697 1 233 258
698 1 233 234
699 1 233 259
700 1 234 259
701 1 234 235
702 1 234 260
703 1 235 260
704 1 235 236
705 1 235 261
706 1 236 261
707 1 236 237
708 1 236 262
709 1 237 262
710 1 237 238
711 1 237 263
712 1 238 263
713 1 238 239
714 1 238 264
715 1 239 264
716 1 239 240
717 1 239 265
718 1 240 265
719 1 240 241
720 1 240 266
721 1 241 266
722 1 241 242
723 1 241 267
724 1 242 267
725 1 242 243
726 1 242 268
727 1 243 268
728 1 243 244
729 1 243 269
730 1 244 269
731 1 244 245
732 1 244 270
733 1 245 270
734 1 245 246
735 1 245 271
736 1 246 271
737 1 246 247
738 1 246 272
739 1 247 272
740 1 247 248
741 1 247 273
742 1 248 273
743 1 248 249
744 1 248 274
745 1 249 274
746 1 249 250
747 1 249 275
748 1 250 275
749 1 250 226
750 1 250 251
751 1 251 276
752 1 251 252
753 1 251 277
754 1 252 277
755 1 252 253
756 1 252 278
757 1 253 278
758 1 253 254
759 1 253 279
760 1 254 279
761 1 254 255
762 1 254 280
763 1 255 280
764 1 255 256
765 1 255 281
766 1 256 281
767 1 256 257
768 1 256 282
769 1 257 282
770 1 257 258
771 1 257 283
772 1 258 283
773 1 258 259
774 1 258 284
775 1 259 284
776 1 259 260
777 1 259 285
778 1 260 285
779 1 260 261
780 1 260 286
781 1 261 286
782 1 261 262
783 1 261 287
784 1 262 287
785 1 262 263
786 1 262 288
787 1 263 288
788 1 263 264
789 1 263 289
790 1 264 289
791 1 264 265
792 1 264 290
793 1 265 290
794 1 265 266
795 1 265 291
796 1 266 291
797 1 266 267
798 1 266 292
799 1 267 292
800 1 267 268
801 1 267 293
802 1 268 293
803 1 268 269
804 1 268 294
805 1 269 294
806 1 269 270
807 1 269 295
808 1 270 295
809 1 270 271
810 1 270 296
811 1 271 296
812 1 271 272
813 1 271 297
814 1 272 297
815 1 272 273
816 1 272 298
817 1 273 298
818 1 273 274
819 1 273 299
820 1 274 299
821 1 274 275
822 1 274 300
823 1 275 300
824 1 275 251
825 1 275 276
826 1 276 301
827 1 276 277
828 1 276 302
829 1 277 302
830 1 277 278
831 1 277 303
832 1 278 303
833 1 278 279
834 1 278 304
835 1 279 304
836 1 279 280
837 1 279 305
838 1 280 305
839 1 280 281
840 1 280 306
841 1 281 306
842 1 281 282
843 1 281 307
844 1 282 307
845 1 282 283
846 1 282 308
847 1 283 308
848 1 283 284
849 1 283 309
850 1 284 309
851 1 284 285
852 1 284 310
853 1 285 310
854 1 285 286
855 1 285 311
856 1 286 311
857 1 286 287
858 1 286 312
859 1 287 312
860 1 287 288
861 1 287 313
862 1 288 313
863 1 288 289
864 1 288 314
865 1 289 314
866 1 289 290
867 1 289 315
868 1 290 315
869 1 290 291
870 1 290 316
871 1 291 316
872 1 291 292
873 1 291 317
874 1 292 317
875 1 292 293
876 1 292 318
877 1 293 318
878 1 293 294
879 1 293 319
880 1 294 319
881 1 294 295
882 1 294 320
883 1 295 320
884 1 295 296
885 1 295 321
886 1 296 321
887 1 296 297
888 1 296 322
889 1 297 322
890 1 297 298
891 1 297 323
892 1 298 323
893 1 298 299
894 1 298 324
895 1 299 324
896 1 299 300
897 1 299 325
898 1 300 325
899 1 300 276
900 1 300 301
901 1 301 326
902 1 301 302
903 1 301 327
904 1 302 327
905 1 302 303
906 1 302 328
907 1 303 328
908 1 303 304
909 1 303 329
910 1 304 329
911 1 304 305
912 1 304 330
913 1 305 330
914 1 305 306
915 1 305 331
916 1 306 331
917 1 306 307
918 1 306 332
919 1 307 332
920 1 307 308
921 1 307 333
922 1 308 333
923 1 308 309
924 1 308 334
925 1 309 334
926 1 309 310
927 1 309 335
928 1 310 335
929 1 310 311
930 1 310 336
931 1 311 336
932 1 311 312
933 1 311 337
934 1 312 337
935 1 312 313
936 1 312 338
937 1 313 338
938 1 313 314
939 1 313 339
940 1 314 339
941 1 314 315
942 1 314 340
943 1 315 340
944 1 315 316
945 1 315 341
946 1 316 341
947 1 316 317
948 1 316 342
949 1 317 342
950 1 317 318
951 1 317 343
952 1 318 343
953 1 318 319
954 1 318 344
955 1 319 344
956 1 319 320
957 1 319 345
958 1 320 345
959 1 320 321
960 1 320 346
961 1 321 346
962 1 321 322
963 1 321 347
964 1 322 347
965 1 322 323
966 1 322 348
967 1 323 348
968 1 323 324
969 1 323 349
970 1 324 349
971 1 324 325
972 1 324 350
973 1 325 350
974 1 325 301
975 1 325 326
976 1 326 351
977 1 326 327
978 1 326 352
979 1 327 352
980 1 327 328
981 1 327 353
982 1 328 353
983 1 328 329
984 1 328 354
985 1 329 354
986 1 329 330
987 1 329 355
988 1 330 355
989 1 330 331
990 1 330 356
991 1 331 356
992 1 331 332
993 1 331 357
994 1 332 357
995 1 332 333
996 1 332 358
997 1 333 358
998 1 333 334
999 1 333 359
1000 1 334 359
1001 1 334 335
1002 1 334 360
1003 1 335 360
1004 1 335 336
1005 1 335 361
1006 1 336 361
1007 1 336 337
1008 1 336 362
1009 1 337 362
1010 1 337 338
1011 1 337 363
1012 1 338 363
1013 1 338 339
1014 1 338 364
1015 1 339 364
1016 1 339 340
1017 1 339 365
1018 1 340 365
1019 1 340 341
1020 1 340 366
1021 1 341 366
1022 1 341 342
1023 1 341 367
1024 1 342 367
1025 1 342 343
1026 1 342 368
1027 1 343 368
1028 1 343 344
1029 1 343 369
1030 1 344 369
1031 1 344 345
1032 1 344 370
1033 1 345 370
1034 1 345 346
1035 1 345 371
1036 1 346 371
1037 1 346 347
1038 1 346 372
1039 1 347 372
1040 1 347 348
1041 1 347 373
1042 1 348 373
1043 1 348 349
1044 1 348 374
1045 1 349 374
1046 1 349 350
1047 1 349 375
1048 1 350 375
1049 1 350 326
1050 1 350 351
1051 1 351 376
1052 1 351 352
1053 1 351 377
1054 1 352 377
1055 1 352 353
1056 1 352 378
1057 1 353 378
1058 1 353 354
1059 1 353 379
1060 1 354 379
1061 1 354 355
1062 1 354 380
1063 1 355 380
1064 1 355 356
1065 1 355 381
1066 1 356 381
1067 1 356 357
1068 1 356 382
1069 1 357 382
1070 1 357 358
1071 1 357 383
1072 1 358 383
1073 1 358 359
1074 1 358 384
1075 1 359 384
1076 1 359 360
1077 1 359 385
1078 1 360 385
1079 1 360 361
1080 1 360 386
1081 1 361 386
1082 1 361 362
1083 1 361 387
1084 1 362 387
1085 1 362 363
1086 1 362 388
1087 1 363 388
1088 1 363 364
1089 1 363 389
1090 1 364 389
1091 1 364 365
1092 1 364 390
1093 1 365 390
1094 1 365 366
1095 1 365 391
1096 1 366 391
1097 1 366 367
1098 1 366 392
1099 1 367 392
1100 1 367 368
1101 1 367 393
1102 1 368 393
1103 1 368 369
1104 1 368 394
1105 1 369 394
1106 1 369 370
1107 1 369 395
1108 1 370 395
1109 1 370 371
1110 1 370 396
1111 1 371 396
1112 1 371 372
1113 1 371 397
1114 1 372 397
1115 1 372 373
1116 1 372 398
1117 1 373 398
1118 1 373 374
1119 1 373 399
1120 1 374 399
1121 1 374 375
1122 1 374 400
1123 1 375 400
1124 1 375 351
1125 1 375 376
1126 1 376 401
1127 1 376 377
1128 1 376 402
1129 1 377 402
1130 1 377 378
1131 1 377 403
1132 1 378 403
1133 1 378 379
1134 1 378 404
1135 1 379 404
1136 1 379 380
1137 1 379 405
1138 1 380 405
1139 1 380 381
1140 1 380 406
1141 1 381 406
1142 1 381 382
1143 1 381 407
1144 1 382 407
1145 1 382 383
1146 1 382 408
1147 1 383 408
1148 1 383 384
1149 1 383 409
1150 1 384 409
1151 1 384 385
1152 1 384 410
1153 1 385 410
1154 1 385 386
1155 1 385 411
1156 1 386 411
1157 1 386 387
1158 1 386 412
1159 1 387 412
1160 1 387 388
1161 1 387 413
1162 1 388 413
1163 1 388 389
1164 1 388 414
1165 1 389 414
1166 1 389 390
1167 1 389 415
1168 1 390 415
1169 1 390 391
1170 1 390 416
1171 1 391 416
1172 1 391 392
1173 1 391 417
1174 1 392 417
1175 1 392 393
1176 1 392 418
1177 1 393 418
1178 1 393 394
1179 1 393 419
1180 1 394 419
1181 1 394 395
1182 1 394 420
1183 1 395 420
1184 1 395 396
1185 1 395 421
1186 1 396 421
1187 1 396 397
1188 1 396 422
1189 1 397 422
1190 1 397 398
1191 1 397 423
1192 1 398 423
1193 1 398 399
1194 1 398 424
1195 1 399 424
1196 1 399 400
1197 1 399 425
1198 1 400 425
1199 1 400 376
1200 1 400 401
1201 1 401 426
1202 1 401 402
1203 1 401 427
1204 1 402 427
1205 1 402 403
1206 1 402 428
1207 1 403 428
1208 1 403 404
1209 1 403 429
1210 1 404 429
1211 1 404 405
1212 1 404 430
1213 1 405 430
1214 1 405 406
1215 1 405 431
1216 1 406 431
1217 1 406 407
1218 1 406 432
1219 1 407 432
1220 1 407 408
1221 1 407 433
1222 1 408 433
1223 1 408 409
1224 1 408 434
1225 1 409 434
1226 1 409 410
1227 1 409 435
1228 1 410 435
1229 1 410 411
1230 1 410 436
1231 1 411 436
1232 1 411 412
1233 1 411 437
1234 1 412 437
1235 1 412 413
1236 1 412 438
1237 1 413 438
1238 1 413 414
1239 1 413 439
1240 1 414 439
1241 1 414 415
1242 1 414 440
1243 1 415 440
1244 1 415 416
1245 1 415 441
1246 1 416 441
1247 1 416 417
1248 1 416 442
1249 1 417 442
1250 1 417 418
1251 1 417 443
1252 1 418 443
1253 1 418 419
1254 1 418 444
1255 1 419 444
1256 1 419 420
1257 1 419 445
1258 1 420 445
1259 1 420 421
1260 1 420 446
1261 1 421 446
1262 1 421 422
1263 1 421 447
1264 1 422 447
1265 1 422 423
1266 1 422 448
1267 1 423 448
1268 1 423 424
1269 1 423 449
1270 1 424 449
1271 1 424 425
1272 1 424 450
1273 1 425 450
1274 1 425 401
1275 1 425 426
1276 1 426 451
1277 1 426 427
1278 1 426 452
1279 1 427 452
1280 1 427 428
1281 1 427 453
1282 1 428 453
1283 1 428 429
1284 1 428 454
1285 1 429 454
1286 1 429 430
1287 1 429 455
1288 1 430 455
1289 1 430 431
1290 1 430 456
1291 1 431 456
1292 1 431 432
1293 1 431 457
1294 1 432 457
1295 1 432 433
1296 1 432 458
1297 1 433 458
1298 1 433 434
1299 1 433 459
1300 1 434 459
1301 1 434 435
1302 1 434 460
1303 1 435 460
1304 1 435 436
1305 1 435 461
1306 1 436 461
1307 1 436 437
1308 1 436 462
1309 1 437 462
1310 1 437 438
1311 1 437 463
1312 1 438 463
1313 1 438 439
1314 1 438 464
1315 1 439 464
1316 1 439 440
1317 1 439 465
1318 1 440 465
1319 1 440 441
1320 1 440 466
1321 1 441 466
1322 1 441 442
1323 1 441 467
1324 1 442 467
1325 1 442 443
1326 1 442 468
1327 1 443 468
1328 1 443 444
1329 1 443 469
1330 1 444 469
1331 1 444 445
1332 1 444 470
1333 1 445 470
1334 1 445 446
1335 1 445 471
1336 1 446 471
1337 1 446 447
1338 1 446 472
1339 1 447 472
1340 1 447 448
1341 1 447 473
1342 1 448 473
1343 1 448 449
1344 1 448 474
1345 1 449 474
1346 1 449 450
1347 1 449 475
1348 1 450 475
1349 1 450 426
1350 1 450 451
1351 1 451 476
1352 1 451 452
1353 1 451 477
1354 1 452 477
1355 1 452 453
1356 1 452 478
1357 1 453 478
1358 1 453 454
1359 1 453 479
1360 1 454 479
1361 1 454 455
1362 1 454 480
1363 1 455 480
1364 1 455 456
1365 1 455 481
1366 1 456 481
1367 1 456 457
1368 1 456 482
1369 1 457 482
1370 1 457 458
1371 1 457 483
1372 1 458 483
1373 1 458 459
1374 1 458 484
1375 1 459 484
1376 1 459 460
1377 1 459 485
1378 1 460 485
1379 1 460 461
1380 1 460 486
1381 1 461 486
1382 1 461 462
1383 1 461 487
1384 1 462 487
1385 1 462 463
1386 1 462 488
1387 1 463 488
1388 1 463 464
1389 1 463 489
1390 1 464 489
1391 1 464 465
1392 1 464 490
1393 1 465 490
1394 1 465 466
1395 1 465 491
1396 1 466 491
1397 1 466 467
1398 1 466 492
1399 1 467 492
1400 1 467 468
1401 1 467 493
1402 1 468 493
1403 1 468 469
1404 1 468 494
1405 1 469 494
1406 1 469 470
1407 1 469 495
1408 1 470 495
1409 1 470 471
1410 1 470 496
1411 1 471 496
1412 1 471 472
1413 1 471 497
1414 1 472 497
1415 1 472 473
1416 1 472 498
1417 1 473 498
1418 1 473 474
1419 1 473 499
1420 1 474 499
1421 1 474 475
1422 1 474 500
1423 1 475 500
1424 1 475 451
1425 1 475 476
1426 1 476 501
1427 1 476 477
1428 1 476 502
1429 1 477 502
1430 1 477 478
1431 1 477 503
1432 1 478 503
1433 1 478 479
1434 1 478 504
1435 1 479 504
1436 1 479 480
1437 1 479 505
1438 1 480 505
1439 1 480 481
1440 1 480 506
1441 1 481 506
1442 1 481 482
1443 1 481 507
1444 1 482 507
1445 1 482 483
1446 1 482 508
1447 1 483 508
1448 1 483 484
1449 1 483 509
1450 1 484 509
1451 1 484 485
1452 1 484 510
1453 1 485 510
1454 1 485 486
1455 1 485 511
1456 1 486 511
1457 1 486 487
1458 1 486 512
1459 1 487 512
1460 1 487 488
1461 1 487 513
1462 1 488 513
1463 1 488 489
1464 1 488 514
1465 1 489 514
1466 1 489 490
1467 1 489 515
1468 1 490 515
1469 1 490 491
1470 1 490 516